LAMMPS Description

150 atoms
149 bonds
148 angles

1 atom types
1 bond types
1 angle types

-40 40 xlo xhi
-40 40 ylo yhi
-40 40 zlo zhi

Atoms # id mol type xu yu zu

1	1	1	-10.4967	-8.11185	-13.9869
2	1	1	-10.4582	-7.55932	-13.1328
3	1	1	-10.4722	-6.91482	-12.3611
4	1	1	-10.5983	-6.5043	-11.3251
5	1	1	-10.7939	-5.94358	-10.5004
6	1	1	-11.0209	-5.58379	-9.50861
7	1	1	-11.279	-5.27505	-8.50396
8	1	1	-11.4616	-4.88359	-7.55691
9	1	1	-11.5364	-4.47512	-6.57442
10	1	1	-11.7376	-4.14054	-5.61794
11	1	1	-12.0003	-3.75049	-4.71195
12	1	1	-12.3066	-3.43387	-3.73396
13	1	1	-12.6606	-3.25007	-2.76169
14	1	1	-13.0331	-2.89514	-1.86823
15	1	1	-13.3318	-2.46974	-0.90738
16	1	1	-13.2161	-1.91447	-0.04978
17	1	1	-12.9317	-1.24795	0.77381
18	1	1	-12.5472	-0.84662	1.72453
19	1	1	-12.39	-0.23667	2.56972
20	1	1	-12.1638	0.35537	3.41451
21	1	1	-11.9559	1.05925	4.22484
22	1	1	-11.6231	1.64515	5.03535
23	1	1	-11.1446	2.10408	5.86283
24	1	1	-10.6262	2.80243	6.50654
25	1	1	-9.9767	3.35026	7.14822
26	1	1	-9.21821	3.91787	7.66614
27	1	1	-8.39582	4.53469	8.01818
28	1	1	-7.67218	5.33911	8.37137
29	1	1	-6.96508	6.08439	8.65799
30	1	1	-6.2868	6.86219	8.90829
31	1	1	-5.67491	7.73657	9.07589
32	1	1	-5.14638	8.63172	9.2249
33	1	1	-4.64886	9.60213	9.47011
34	1	1	-4.05408	10.4576	9.49793
35	1	1	-3.41761	11.2823	9.73852
36	1	1	-2.60786	11.993	9.8851
37	1	1	-1.70848	12.5645	10.0373
38	1	1	-0.78939	13.0801	10.1789
39	1	1	0.09146	13.4991	10.5416
40	1	1	0.98409	13.7585	10.9551
41	1	1	1.95422	13.8372	11.3231
42	1	1	2.98893	13.8777	11.6407
43	1	1	3.99707	13.6489	11.8574
44	1	1	4.97688	13.3551	12.1783
45	1	1	5.88627	12.9256	12.2308
46	1	1	6.74405	12.3048	12.4025
47	1	1	7.55609	11.7064	12.5217
48	1	1	8.27112	10.9837	12.7299
49	1	1	8.83685	10.0845	12.8028
50	1	1	9.47203	9.19714	12.6978
51	1	1	10.0744	8.38883	12.5465
52	1	1	10.6973	7.57305	12.3793
53	1	1	11.3237	6.75249	12.3271
54	1	1	11.7812	5.8749	12.0226
55	1	1	11.9496	4.91266	11.5783
56	1	1	11.9635	4.0763	10.9791
57	1	1	11.949	3.29638	10.2697
58	1	1	11.9672	2.96314	9.25116
59	1	1	12.0361	2.82759	8.18172
60	1	1	12.1111	2.60883	7.10461
61	1	1	12.2559	2.3402	6.05896
62	1	1	12.2251	2.1546	5.06988
63	1	1	12.1007	1.79028	4.06257
64	1	1	12.0993	1.45892	3.07208
65	1	1	12.111	1.16155	2.06927
66	1	1	12.156	0.68462	1.12159
67	1	1	12.0503	0.17512	0.23173
68	1	1	11.9584	-0.05237	-0.74165
69	1	1	12.0918	-0.18711	-1.82228
70	1	1	12.214	-0.19733	-2.84095
71	1	1	12.2179	-0.13442	-3.90095
72	1	1	12.2312	-0.15075	-4.93305
73	1	1	12.2816	-0.19235	-5.9599
74	1	1	12.3162	-0.16389	-7.00772
75	1	1	12.0372	-0.36154	-7.97916
76	1	1	11.611	-0.5941	-8.86465
77	1	1	10.8701	-0.65724	-9.6501
78	1	1	9.91664	-0.52174	-10.2062
79	1	1	9.18471	-0.39041	-10.8632
80	1	1	8.4152	-0.3048	-11.5602
81	1	1	7.59638	-0.09554	-12.219
82	1	1	6.80927	0.12273	-12.8739
83	1	1	5.99539	0.52975	-13.3486
84	1	1	5.07223	0.83627	-13.7878
85	1	1	4.02266	1.018	-13.9827
86	1	1	3.01601	1.26757	-14.08
87	1	1	2.06921	1.69489	-14.1519
88	1	1	1.21099	2.28472	-13.9252
89	1	1	0.3164	2.77939	-14.031
90	1	1	-0.52838	3.41131	-14.1077
91	1	1	-1.21404	4.22975	-13.9589
92	1	1	-2.02728	4.93215	-13.8484
93	1	1	-2.64868	5.75101	-13.6542
94	1	1	-3.38385	6.55144	-13.6415
95	1	1	-3.81869	7.43477	-13.1697
96	1	1	-4.45701	8.15459	-12.7991
97	1	1	-5.06052	8.88618	-12.4737
98	1	1	-5.66457	9.58692	-11.9287
99	1	1	-6.20057	10.2066	-11.2845
100	1	1	-6.79752	10.9027	-10.8014
101	1	1	-7.49143	11.4983	-10.275
102	1	1	-8.22556	11.9144	-9.68125
103	1	1	-8.92657	12.4779	-9.11403
104	1	1	-9.34096	13.0004	-8.30465
105	1	1	-9.6955	13.4658	-7.42452
106	1	1	-9.91794	13.7407	-6.42892
107	1	1	-10.3917	13.844	-5.41791
108	1	1	-10.8883	13.8178	-4.50472
109	1	1	-11.1431	13.7502	-3.52432
110	1	1	-11.4155	13.6378	-2.57945
111	1	1	-11.5242	13.3794	-1.53607
112	1	1	-11.678	13.3212	-0.51033
113	1	1	-11.8738	13.0942	0.47004
114	1	1	-12.0162	12.7324	1.51381
115	1	1	-12.2081	12.1866	2.39535
116	1	1	-12.2649	11.4273	3.18641
117	1	1	-12.1399	10.5365	3.69229
118	1	1	-11.9066	9.71367	4.35607
119	1	1	-11.3785	8.8799	4.66442
120	1	1	-10.806	8.05161	4.95621
121	1	1	-10.3351	7.23561	5.48486
122	1	1	-10.0411	6.26695	5.84486
123	1	1	-9.61584	5.35246	6.13137
124	1	1	-9.15446	4.41928	6.3987
125	1	1	-8.71831	3.47134	6.50491
126	1	1	-8.23054	2.62266	6.92902
127	1	1	-7.92108	1.73077	7.40094
128	1	1	-7.31905	0.9491	7.62752
129	1	1	-6.6705	0.1187	7.83772
130	1	1	-6.10347	-0.75786	8.07385
131	1	1	-5.47796	-1.51428	8.38265
132	1	1	-4.70831	-2.30588	8.49121
133	1	1	-3.74227	-2.79851	8.40483
134	1	1	-2.84514	-3.32738	8.42185
135	1	1	-1.85308	-3.69484	8.30412
136	1	1	-0.82766	-3.81564	8.13007
137	1	1	0.231	-3.89808	8.14542
138	1	1	1.27509	-4.01344	8.14106
139	1	1	2.31233	-3.7658	8.13671
140	1	1	3.3605	-3.557	7.9236
141	1	1	4.31558	-3.16311	7.69073
142	1	1	5.12399	-2.58655	7.31846
143	1	1	5.77613	-1.88774	6.94382
144	1	1	6.46827	-1.22868	6.53268
145	1	1	7.0106	-0.40629	6.12495
146	1	1	7.56053	0.39724	5.76687
147	1	1	8.19151	1.19621	5.38598
148	1	1	8.99567	1.93347	5.17982
149	1	1	9.82701	2.48274	4.92926
150	1	1	10.676	3.0776	4.82607

Bonds

1	1	1	2
2	1	2	3
3	1	3	4
4	1	4	5
5	1	5	6
6	1	6	7
7	1	7	8
8	1	8	9
9	1	9	10
10	1	10	11
11	1	11	12
12	1	12	13
13	1	13	14
14	1	14	15
15	1	15	16
16	1	16	17
17	1	17	18
18	1	18	19
19	1	19	20
20	1	20	21
21	1	21	22
22	1	22	23
23	1	23	24
24	1	24	25
25	1	25	26
26	1	26	27
27	1	27	28
28	1	28	29
29	1	29	30
30	1	30	31
31	1	31	32
32	1	32	33
33	1	33	34
34	1	34	35
35	1	35	36
36	1	36	37
37	1	37	38
38	1	38	39
39	1	39	40
40	1	40	41
41	1	41	42
42	1	42	43
43	1	43	44
44	1	44	45
45	1	45	46
46	1	46	47
47	1	47	48
48	1	48	49
49	1	49	50
50	1	50	51
51	1	51	52
52	1	52	53
53	1	53	54
54	1	54	55
55	1	55	56
56	1	56	57
57	1	57	58
58	1	58	59
59	1	59	60
60	1	60	61
61	1	61	62
62	1	62	63
63	1	63	64
64	1	64	65
65	1	65	66
66	1	66	67
67	1	67	68
68	1	68	69
69	1	69	70
70	1	70	71
71	1	71	72
72	1	72	73
73	1	73	74
74	1	74	75
75	1	75	76
76	1	76	77
77	1	77	78
78	1	78	79
79	1	79	80
80	1	80	81
81	1	81	82
82	1	82	83
83	1	83	84
84	1	84	85
85	1	85	86
86	1	86	87
87	1	87	88
88	1	88	89
89	1	89	90
90	1	90	91
91	1	91	92
92	1	92	93
93	1	93	94
94	1	94	95
95	1	95	96
96	1	96	97
97	1	97	98
98	1	98	99
99	1	99	100
100	1	100	101
101	1	101	102
102	1	102	103
103	1	103	104
104	1	104	105
105	1	105	106
106	1	106	107
107	1	107	108
108	1	108	109
109	1	109	110
110	1	110	111
111	1	111	112
112	1	112	113
113	1	113	114
114	1	114	115
115	1	115	116
116	1	116	117
117	1	117	118
118	1	118	119
119	1	119	120
120	1	120	121
121	1	121	122
122	1	122	123
123	1	123	124
124	1	124	125
125	1	125	126
126	1	126	127
127	1	127	128
128	1	128	129
129	1	129	130
130	1	130	131
131	1	131	132
132	1	132	133
133	1	133	134
134	1	134	135
135	1	135	136
136	1	136	137
137	1	137	138
138	1	138	139
139	1	139	140
140	1	140	141
141	1	141	142
142	1	142	143
143	1	143	144
144	1	144	145
145	1	145	146
146	1	146	147
147	1	147	148
148	1	148	149
149	1	149	150

Angles

1	1	1	2	3
2	1	2	3	4
3	1	3	4	5
4	1	4	5	6
5	1	5	6	7
6	1	6	7	8
7	1	7	8	9
8	1	8	9	10
9	1	9	10	11
10	1	10	11	12
11	1	11	12	13
12	1	12	13	14
13	1	13	14	15
14	1	14	15	16
15	1	15	16	17
16	1	16	17	18
17	1	17	18	19
18	1	18	19	20
19	1	19	20	21
20	1	20	21	22
21	1	21	22	23
22	1	22	23	24
23	1	23	24	25
24	1	24	25	26
25	1	25	26	27
26	1	26	27	28
27	1	27	28	29
28	1	28	29	30
29	1	29	30	31
30	1	30	31	32
31	1	31	32	33
32	1	32	33	34
33	1	33	34	35
34	1	34	35	36
35	1	35	36	37
36	1	36	37	38
37	1	37	38	39
38	1	38	39	40
39	1	39	40	41
40	1	40	41	42
41	1	41	42	43
42	1	42	43	44
43	1	43	44	45
44	1	44	45	46
45	1	45	46	47
46	1	46	47	48
47	1	47	48	49
48	1	48	49	50
49	1	49	50	51
50	1	50	51	52
51	1	51	52	53
52	1	52	53	54
53	1	53	54	55
54	1	54	55	56
55	1	55	56	57
56	1	56	57	58
57	1	57	58	59
58	1	58	59	60
59	1	59	60	61
60	1	60	61	62
61	1	61	62	63
62	1	62	63	64
63	1	63	64	65
64	1	64	65	66
65	1	65	66	67
66	1	66	67	68
67	1	67	68	69
68	1	68	69	70
69	1	69	70	71
70	1	70	71	72
71	1	71	72	73
72	1	72	73	74
73	1	73	74	75
74	1	74	75	76
75	1	75	76	77
76	1	76	77	78
77	1	77	78	79
78	1	78	79	80
79	1	79	80	81
80	1	80	81	82
81	1	81	82	83
82	1	82	83	84
83	1	83	84	85
84	1	84	85	86
85	1	85	86	87
86	1	86	87	88
87	1	87	88	89
88	1	88	89	90
89	1	89	90	91
90	1	90	91	92
91	1	91	92	93
92	1	92	93	94
93	1	93	94	95
94	1	94	95	96
95	1	95	96	97
96	1	96	97	98
97	1	97	98	99
98	1	98	99	100
99	1	99	100	101
100	1	100	101	102
101	1	101	102	103
102	1	102	103	104
103	1	103	104	105
104	1	104	105	106
105	1	105	106	107
106	1	106	107	108
107	1	107	108	109
108	1	108	109	110
109	1	109	110	111
110	1	110	111	112
111	1	111	112	113
112	1	112	113	114
113	1	113	114	115
114	1	114	115	116
115	1	115	116	117
116	1	116	117	118
117	1	117	118	119
118	1	118	119	120
119	1	119	120	121
120	1	120	121	122
121	1	121	122	123
122	1	122	123	124
123	1	123	124	125
124	1	124	125	126
125	1	125	126	127
126	1	126	127	128
127	1	127	128	129
128	1	128	129	130
129	1	129	130	131
130	1	130	131	132
131	1	131	132	133
132	1	132	133	134
133	1	133	134	135
134	1	134	135	136
135	1	135	136	137
136	1	136	137	138
137	1	137	138	139
138	1	138	139	140
139	1	139	140	141
140	1	140	141	142
141	1	141	142	143
142	1	142	143	144
143	1	143	144	145
144	1	144	145	146
145	1	145	146	147
146	1	146	147	148
147	1	147	148	149
148	1	148	149	150